20
	Energy:      25.1942985
C         -6.50030        2.34501       -0.46392
C         -5.27739        2.02672        0.42841
C         -7.45578        3.46527        0.00459
C         -6.92014        4.88689       -0.02339
C         -3.72289        4.09845        0.07807
C         -3.90715        2.59264       -0.00703
H         -5.12052        0.92841        0.33142
H         -5.50362        2.21387        1.50010
H         -7.14944        1.44193       -0.40611
H         -6.20338        2.44534       -1.52999
H         -7.81066        3.23962        1.03407
H         -8.33994        3.44040       -0.66973
H         -4.36647        4.61068       -0.65866
H         -2.67359        4.35086       -0.18410
H         -3.91685        4.45514        1.11144
H         -3.68793        2.26622       -1.04725
H         -3.14152        2.13586        0.65799
H         -6.11904        5.01488        0.72574
H         -7.73513        5.58715        0.25748
H         -6.57370        5.15079       -1.04468
